LAMMPS Description
 
     44651  atoms
     9330  bonds
     4665  angles
     0  dihedrals
     0  impropers
 
     6  atom types
     1  bond types
     1  angle types
 
  -1.247077 200.779334 xlo xhi
  0.000000 202.847083 ylo yhi
  -50.000000 57.000000 zlo zhi
 
Masses
 
  1    15.9994
  2    1.008
  3    14.007
  4    22.9898
  5    35.453
  6    10.811

Atoms # full
 
1 1 1 -1.048400e+00 67.834032 107.999956 5.343877
2 1 2 5.242000e-01 68.070648 107.028496 5.327188
3 1 2 5.242000e-01 68.659821 108.541489 5.501404
4 2 1 -1.048400e+00 168.824410 61.062015 1.825400
5 2 2 5.242000e-01 168.404487 60.520648 1.096986
6 2 2 5.242000e-01 168.158058 61.718263 2.179398
7 3 1 -1.048400e+00 139.284307 39.341446 3.494390
8 3 2 5.242000e-01 139.313453 38.936756 2.580401
9 3 2 5.242000e-01 138.919446 38.673608 4.143134
10 4 1 -1.048400e+00 131.533837 77.091194 4.731469
11 4 2 5.242000e-01 132.127797 77.162191 3.930114
12 4 2 5.242000e-01 132.092807 77.078157 5.560555
13 5 1 -1.048400e+00 -0.065061 137.641271 1.981995
14 5 2 5.242000e-01 0.189462 136.802484 2.463301
15 5 2 5.242000e-01 -0.107950 137.461683 0.999188
16 6 1 -1.048400e+00 35.725427 12.438108 4.917382
17 6 2 5.242000e-01 35.643014 12.097654 5.854025
18 6 2 5.242000e-01 34.818195 12.668446 4.565423
19 7 1 -1.048400e+00 142.259328 69.210414 1.633710
20 7 2 5.242000e-01 143.187254 69.363502 1.293833
21 7 2 5.242000e-01 142.301336 68.775123 2.533019
22 8 1 -1.048400e+00 149.653916 186.371973 5.575622
23 8 2 5.242000e-01 149.626030 187.250251 5.098286
24 8 2 5.242000e-01 150.552414 186.250215 5.997376
25 9 1 -1.048400e+00 89.320066 25.757556 3.704423
26 9 2 5.242000e-01 89.819982 25.010670 3.265964
27 9 2 5.242000e-01 88.416053 25.844463 3.285845
28 10 1 -1.048400e+00 187.950336 15.152725 4.065846
29 10 2 5.242000e-01 188.046519 14.185258 3.831843
30 10 2 5.242000e-01 187.233595 15.259302 4.754994
31 11 1 -1.048400e+00 126.492770 84.666968 5.426028
32 11 2 5.242000e-01 127.080032 85.288109 5.944976
33 11 2 5.242000e-01 125.643099 85.135623 5.184322
34 12 1 -1.048400e+00 38.631683 90.428648 2.265474
35 12 2 5.242000e-01 37.918313 90.201669 2.928485
36 12 2 5.242000e-01 38.223721 90.906057 1.487240
37 13 1 -1.048400e+00 111.315088 188.366137 3.741563
38 13 2 5.242000e-01 111.184306 189.222124 3.241381
39 13 2 5.242000e-01 112.268938 188.292607 4.032706
40 14 1 -1.048400e+00 112.219609 0.000029 2.154530
41 14 2 5.242000e-01 112.938104 0.676017 2.318260
42 14 2 5.242000e-01 111.665815 0.285064 1.372182
43 15 1 -1.048400e+00 126.776201 93.964281 2.894480
44 15 2 5.242000e-01 126.467740 93.768768 3.825409
45 15 2 5.242000e-01 127.582764 93.410588 2.687405
46 16 1 -1.048400e+00 34.319923 138.418809 4.829048
47 16 2 5.242000e-01 34.273876 137.471899 5.147233
48 16 2 5.242000e-01 33.397455 138.803057 4.791524
49 17 1 -1.048400e+00 183.577851 92.479984 1.694464
50 17 2 5.242000e-01 183.108998 92.319756 2.563087
51 17 2 5.242000e-01 183.512069 93.448378 1.453865
52 18 1 -1.048400e+00 74.012434 27.619810 4.753986
53 18 2 5.242000e-01 74.730428 28.315860 4.754623
54 18 2 5.242000e-01 74.429362 26.710874 4.756988
55 19 1 -1.048400e+00 84.089378 114.081355 5.216327
56 19 2 5.242000e-01 84.684637 113.300230 5.027883
57 19 2 5.242000e-01 83.136346 113.778750 5.228969
58 20 1 -1.048400e+00 53.684122 53.817126 2.891814
59 20 2 5.242000e-01 54.015584 54.659712 3.316295
60 20 2 5.242000e-01 53.730419 53.904640 1.896727
61 21 1 -1.048400e+00 9.371484 59.229206 5.100846
62 21 2 5.242000e-01 9.995374 58.469328 4.918238
63 21 2 5.242000e-01 8.946121 59.103233 5.997059
64 22 1 -1.048400e+00 124.318678 28.204157 5.649158
65 22 2 5.242000e-01 124.418680 29.199101 5.658473
66 22 2 5.242000e-01 125.222935 27.778591 5.614305
67 23 1 -1.048400e+00 137.956665 146.038440 3.118782
68 23 2 5.242000e-01 137.061099 145.912646 3.545559
69 23 2 5.242000e-01 138.233358 145.189651 2.668229
70 24 1 -1.048400e+00 148.259003 136.369721 5.371612
71 24 2 5.242000e-01 148.939220 136.107961 4.686932
72 24 2 5.242000e-01 148.084606 135.596184 5.980896
73 25 1 -1.048400e+00 185.791870 194.380358 1.679030
74 25 2 5.242000e-01 186.105271 193.508089 1.303628
75 25 2 5.242000e-01 186.205135 194.523962 2.578247
76 26 1 -1.048400e+00 184.662210 68.758477 3.694802
77 26 2 5.242000e-01 185.197933 68.962644 4.514141
78 26 2 5.242000e-01 183.921435 69.424391 3.606415
79 27 1 -1.048400e+00 13.448296 122.918274 5.953361
80 27 2 5.242000e-01 12.471474 123.126803 6.001684
81 27 2 5.242000e-01 13.575205 121.928142 5.893924
82 28 1 -1.048400e+00 124.566495 196.236256 4.797245
83 28 2 5.242000e-01 124.226492 195.306789 4.940390
84 28 2 5.242000e-01 123.798141 196.876278 4.799518
85 29 1 -1.048400e+00 29.398560 80.166673 1.298294
86 29 2 5.242000e-01 28.549850 80.671068 1.457286
87 29 2 5.242000e-01 30.112165 80.800587 1.000099
88 30 1 -1.048400e+00 162.897200 20.181602 3.889066
89 30 2 5.242000e-01 163.396421 20.891861 3.392769
90 30 2 5.242000e-01 161.926081 20.231919 3.655832
91 31 1 -1.048400e+00 41.488954 67.687537 2.989203
92 31 2 5.242000e-01 41.509024 67.460895 2.015432
93 31 2 5.242000e-01 41.563779 68.678283 3.102441
94 32 1 -1.048400e+00 113.305543 178.184080 3.575996
95 32 2 5.242000e-01 112.387739 177.896349 3.302412
96 32 2 5.242000e-01 113.351195 178.249038 4.572839
97 33 1 -1.048400e+00 61.609810 134.796243 5.288851
98 33 2 5.242000e-01 61.388137 134.096749 5.968240
99 33 2 5.242000e-01 62.535754 134.643739 4.943350
100 34 1 -1.048400e+00 86.305149 71.749834 1.759219
101 34 2 5.242000e-01 87.252305 71.724381 1.439456
102 34 2 5.242000e-01 85.692825 71.505559 1.007296
103 35 1 -1.048400e+00 19.712283 146.366230 5.253029
104 35 2 5.242000e-01 18.907567 146.707301 4.767124
105 35 2 5.242000e-01 20.244277 147.138587 5.600085
106 36 1 -1.048400e+00 72.385027 194.847988 4.424781
107 36 2 5.242000e-01 72.226859 195.711054 3.945093
108 36 2 5.242000e-01 71.547986 194.570473 4.896319
109 37 1 -1.048400e+00 196.324089 82.086325 1.970671
110 37 2 5.242000e-01 195.622941 82.758061 2.209760
111 37 2 5.242000e-01 197.212720 82.540458 1.906650
112 38 1 -1.048400e+00 55.518626 136.916007 5.576714
113 38 2 5.242000e-01 54.546381 136.731010 5.719948
114 38 2 5.242000e-01 55.717065 136.915978 4.596601
115 39 1 -1.048400e+00 124.662907 69.146219 5.132992
116 39 2 5.242000e-01 125.110097 69.382252 5.995726
117 39 2 5.242000e-01 123.821569 68.639594 5.321354
118 40 1 -1.048400e+00 82.483608 52.012862 3.542136
119 40 2 5.242000e-01 81.672458 51.438371 3.651660
120 40 2 5.242000e-01 83.257541 51.446345 3.259139
121 41 1 -1.048400e+00 152.632269 47.297719 4.969529
122 41 2 5.242000e-01 152.441669 47.983623 5.671817
123 41 2 5.242000e-01 151.859336 47.244332 4.337290
124 42 1 -1.048400e+00 73.248733 137.526233 2.041153
125 42 2 5.242000e-01 73.085567 137.591163 1.056693
126 42 2 5.242000e-01 73.649812 136.635378 2.254494
127 43 1 -1.048400e+00 5.965898 120.564031 3.737732
128 43 2 5.242000e-01 5.272763 119.858989 3.587795
129 43 2 5.242000e-01 6.061428 121.118656 2.911134
130 44 1 -1.048400e+00 154.878013 3.066424 5.229173
131 44 2 5.242000e-01 154.542710 3.640796 5.975946
132 44 2 5.242000e-01 155.585948 3.558327 4.722360
133 45 1 -1.048400e+00 71.188404 145.436801 5.210954
134 45 2 5.242000e-01 71.763543 145.718014 5.979157
135 45 2 5.242000e-01 70.916569 144.481868 5.330156
136 46 1 -1.048400e+00 137.551680 81.153344 1.462659
137 46 2 5.242000e-01 138.449181 81.583942 1.367383
138 46 2 5.242000e-01 137.536411 80.296920 0.946612
139 47 1 -1.048400e+00 -1.123072 93.523947 2.229034
140 47 2 5.242000e-01 -1.246850 92.750465 2.850649
141 47 2 5.242000e-01 -1.001697 93.185527 1.295900
142 48 1 -1.048400e+00 13.679998 44.515236 2.641846
143 48 2 5.242000e-01 14.555618 44.683734 2.189189
144 48 2 5.242000e-01 13.840966 44.266258 3.596886
145 49 1 -1.048400e+00 141.687239 89.451965 2.461978
146 49 2 5.242000e-01 141.407615 89.181096 1.540870
147 49 2 5.242000e-01 142.684475 89.421918 2.529938
148 50 1 -1.048400e+00 177.768460 46.284918 2.200868
149 50 2 5.242000e-01 178.499540 46.360649 2.878945
150 50 2 5.242000e-01 177.837080 47.041697 1.550809
151 51 1 -1.048400e+00 37.982763 28.112165 3.430309
152 51 2 5.242000e-01 38.791460 28.520382 3.006790
153 51 2 5.242000e-01 37.721670 28.646779 4.234062
154 52 1 -1.048400e+00 89.502023 38.340606 3.473785
155 52 2 5.242000e-01 89.678146 38.494228 2.501478
156 52 2 5.242000e-01 89.853740 39.113196 4.002368
157 53 1 -1.048400e+00 79.061506 201.796605 1.988440
158 53 2 5.242000e-01 78.438058 202.578217 2.008339
159 53 2 5.242000e-01 78.534211 200.948328 2.037288
160 54 1 -1.048400e+00 71.795822 107.091877 4.865425
161 54 2 5.242000e-01 70.963391 107.141769 4.313547
162 54 2 5.242000e-01 72.178969 108.009116 4.974383
163 55 1 -1.048400e+00 172.276559 54.613249 4.027126
164 55 2 5.242000e-01 171.708106 55.313616 4.458806
165 55 2 5.242000e-01 171.694267 53.876275 3.683897
166 56 1 -1.048400e+00 181.154905 20.857314 4.748840
167 56 2 5.242000e-01 181.412415 21.568060 5.403462
168 56 2 5.242000e-01 181.637492 20.009840 4.969970
169 57 1 -1.048400e+00 174.519495 33.771559 3.803514
170 57 2 5.242000e-01 175.506718 33.668141 3.924742
171 57 2 5.242000e-01 174.112713 32.879677 3.605841
172 58 1 -1.048400e+00 42.972962 93.314576 3.185694
173 58 2 5.242000e-01 43.578958 93.518327 3.954625
174 58 2 5.242000e-01 42.763682 94.159408 2.693291
175 59 1 -1.048400e+00 106.185022 53.758807 5.132505
176 59 2 5.242000e-01 106.944808 54.298525 5.495039
177 59 2 5.242000e-01 105.328585 54.257687 5.265300
178 60 1 -1.048400e+00 5.608267 97.426563 4.649479
179 60 2 5.242000e-01 6.265712 97.215918 5.372939
180 60 2 5.242000e-01 4.679009 97.349475 5.010778
181 61 1 -1.048400e+00 196.963408 189.396399 4.698404
182 61 2 5.242000e-01 197.761725 188.892954 5.028908
183 61 2 5.242000e-01 196.131543 188.980886 5.066304
184 62 1 -1.048400e+00 186.416495 77.630284 4.863873
185 62 2 5.242000e-01 186.430738 76.785972 4.328210
186 62 2 5.242000e-01 186.853025 78.363343 4.342275
187 63 1 -1.048400e+00 67.403957 188.061972 3.726521
188 63 2 5.242000e-01 68.015370 188.406023 4.439123
189 63 2 5.242000e-01 67.816017 187.261169 3.291869
190 64 1 -1.048400e+00 188.969424 32.710742 1.178065
191 64 2 5.242000e-01 189.950922 32.640391 0.999986
192 64 2 5.242000e-01 188.671295 31.923370 1.717662
193 65 1 -1.048400e+00 108.927784 110.275956 5.622237
194 65 2 5.242000e-01 108.154710 110.785815 5.999597
195 65 2 5.242000e-01 108.587454 109.526673 5.054125
196 66 1 -1.048400e+00 150.726512 24.514274 1.272650
197 66 2 5.242000e-01 151.116982 23.603290 1.139827
198 66 2 5.242000e-01 149.764434 24.507543 0.999957
199 67 1 -1.048400e+00 168.031444 6.678033 1.804621
200 67 2 5.242000e-01 168.846808 6.976078 2.300959
201 67 2 5.242000e-01 168.044877 5.682737 1.708676
202 68 1 -1.048400e+00 68.725287 149.700727 5.991047
203 68 2 5.242000e-01 69.696599 149.463785 5.970759
204 68 2 5.242000e-01 68.178146 148.863736 6.000167
205 69 1 -1.048400e+00 189.245768 111.406862 2.552097
206 69 2 5.242000e-01 189.099670 111.785702 3.465955
207 69 2 5.242000e-01 189.256367 110.408216 2.603050
208 70 1 -1.048400e+00 92.265545 56.262133 4.027526
209 70 2 5.242000e-01 91.397388 56.307662 4.521723
210 70 2 5.242000e-01 92.675142 55.358933 4.155826
211 71 1 -1.048400e+00 56.611428 154.023684 5.185109
212 71 2 5.242000e-01 55.766803 153.953697 4.654344
213 71 2 5.242000e-01 56.572503 153.390916 5.958472
214 72 1 -1.048400e+00 61.578434 102.460330 4.209754
215 72 2 5.242000e-01 60.662162 102.514310 4.606656
216 72 2 5.242000e-01 61.992912 101.581560 4.446334
217 73 1 -1.048400e+00 48.113063 53.699765 2.977584
218 73 2 5.242000e-01 47.746599 53.273663 2.150456
219 73 2 5.242000e-01 48.186139 53.013815 3.701555
220 74 1 -1.048400e+00 126.124804 6.970197 3.677440
221 74 2 5.242000e-01 126.917584 6.510948 4.078178
222 74 2 5.242000e-01 125.620255 7.450839 4.394667
223 75 1 -1.048400e+00 113.464969 43.199258 2.687189
224 75 2 5.242000e-01 114.169102 42.939380 3.347991
225 75 2 5.242000e-01 113.492451 42.573710 1.907487
226 76 1 -1.048400e+00 109.635457 23.455372 5.991060
227 76 2 5.242000e-01 110.583003 23.774793 6.002362
228 76 2 5.242000e-01 109.588900 22.566095 5.536068
229 77 1 -1.048400e+00 57.163729 138.599708 1.685882
230 77 2 5.242000e-01 56.975311 139.339622 1.040107
231 77 2 5.242000e-01 57.964113 138.834477 2.237489
232 78 1 -1.048400e+00 8.907850 39.485361 5.638729
233 78 2 5.242000e-01 8.424698 40.323073 5.893292
234 78 2 5.242000e-01 9.845912 39.708937 5.374050
235 79 1 -1.048400e+00 66.731138 37.830437 3.731464
236 79 2 5.242000e-01 67.580442 37.302544 3.734939
237 79 2 5.242000e-01 65.950339 37.205665 3.735003
238 80 1 -1.048400e+00 137.140587 189.961020 5.002493
239 80 2 5.242000e-01 136.623567 189.979089 5.858275
240 80 2 5.242000e-01 138.114604 189.856983 5.203660
241 81 1 -1.048400e+00 19.686602 158.762180 2.607823
242 81 2 5.242000e-01 18.914609 158.633649 1.985321
243 81 2 5.242000e-01 19.797534 159.736343 2.804548
244 82 1 -1.048400e+00 118.157607 25.530634 4.536815
245 82 2 5.242000e-01 119.027109 25.145667 4.227352
246 82 2 5.242000e-01 117.402294 25.003544 4.147355
247 83 1 -1.048400e+00 135.516418 101.418863 1.696184
248 83 2 5.242000e-01 135.726108 102.111256 1.005806
249 83 2 5.242000e-01 134.595691 101.061066 1.540483
250 84 1 -1.048400e+00 94.987205 12.959152 1.720849
251 84 2 5.242000e-01 94.469758 13.754945 2.035433
252 84 2 5.242000e-01 94.443842 12.131484 1.861287
253 85 1 -1.048400e+00 136.024642 49.688194 3.145763
254 85 2 5.242000e-01 136.623334 48.891304 3.064925
255 85 2 5.242000e-01 135.129424 49.473509 2.755256
256 86 1 -1.048400e+00 172.901915 186.340158 5.745238
257 86 2 5.242000e-01 173.430737 185.492165 5.709798
258 86 2 5.242000e-01 171.955879 186.132845 5.994313
259 87 1 -1.048400e+00 86.885020 111.716283 5.910749
260 87 2 5.242000e-01 86.538788 111.476083 5.003871
261 87 2 5.242000e-01 86.942799 112.711244 5.992697
262 88 1 -1.048400e+00 191.175913 186.341287 1.964588
263 88 2 5.242000e-01 190.392373 186.927805 2.169680
264 88 2 5.242000e-01 190.854163 185.420986 1.742050
265 89 1 -1.048400e+00 35.699341 119.812903 4.927297
266 89 2 5.242000e-01 36.300054 119.072873 5.229786
267 89 2 5.242000e-01 34.759584 119.476239 4.868027
268 90 1 -1.048400e+00 92.592846 91.522495 4.474825
269 90 2 5.242000e-01 92.904220 92.042007 3.679115
270 90 2 5.242000e-01 91.955037 90.811103 4.179664
271 91 1 -1.048400e+00 1.222522 19.912524 2.041603
272 91 2 5.242000e-01 1.223286 20.815992 2.470259
273 91 2 5.242000e-01 0.289799 19.552317 2.024891
274 92 1 -1.048400e+00 1.635326 150.267559 4.565359
275 92 2 5.242000e-01 1.099987 150.676457 5.304422
276 92 2 5.242000e-01 2.007826 150.990914 3.983980
277 93 1 -1.048400e+00 181.785919 168.138254 2.269106
278 93 2 5.242000e-01 182.588209 167.661335 1.910108
279 93 2 5.242000e-01 181.154647 167.473931 2.669319
280 94 1 -1.048400e+00 173.847608 49.093759 2.865097
281 94 2 5.242000e-01 172.891731 48.872635 2.671698
282 94 2 5.242000e-01 173.992407 49.109885 3.854427
283 95 1 -1.048400e+00 49.687782 70.066024 1.652434
284 95 2 5.242000e-01 50.639203 70.368390 1.710528
285 95 2 5.242000e-01 49.655468 69.066566 1.646143
286 96 1 -1.048400e+00 25.625028 60.374689 5.979396
287 96 2 5.242000e-01 26.341503 60.417533 5.283099
288 96 2 5.242000e-01 24.747228 60.623692 5.570171
289 97 1 -1.048400e+00 88.915665 115.296442 2.346180
290 97 2 5.242000e-01 89.603193 115.436344 3.058734
291 97 2 5.242000e-01 89.110058 115.899408 1.572459
292 98 1 -1.048400e+00 129.229858 108.519612 2.429019
293 98 2 5.242000e-01 128.418535 107.936337 2.389723
294 98 2 5.242000e-01 130.051444 107.951132 2.386265
295 99 1 -1.048400e+00 126.403772 150.658089 3.292947
296 99 2 5.242000e-01 127.295318 150.825641 3.713746
297 99 2 5.242000e-01 126.519384 150.526100 2.308461
298 100 1 -1.048400e+00 7.633211 169.693674 5.507026
299 100 2 5.242000e-01 8.495258 169.836489 5.993317
300 100 2 5.242000e-01 7.823664 169.431871 4.560883
301 101 1 -1.048400e+00 197.321803 34.453346 3.822698
302 101 2 5.242000e-01 197.713995 34.529040 4.739461
303 101 2 5.242000e-01 196.839932 33.581277 3.737273
304 102 1 -1.048400e+00 31.756938 114.278073 1.668520
305 102 2 5.242000e-01 31.240722 113.741559 1.000933
306 102 2 5.242000e-01 31.902320 113.732471 2.493859
307 103 1 -1.048400e+00 150.516248 131.391749 5.995913
308 103 2 5.242000e-01 150.378585 132.211190 5.439527
309 103 2 5.242000e-01 150.239233 130.584547 5.474677
310 104 1 -1.048400e+00 162.554223 130.788280 5.764245
311 104 2 5.242000e-01 162.436500 129.823517 5.999559
312 104 2 5.242000e-01 163.529660 131.004601 5.722674
313 105 1 -1.048400e+00 82.196685 98.610316 4.187601
314 105 2 5.242000e-01 81.876447 97.708315 3.898049
315 105 2 5.242000e-01 82.741572 98.518825 5.021105
316 106 1 -1.048400e+00 7.112452 2.363270 3.835815
317 106 2 5.242000e-01 6.162671 2.529939 3.570978
318 106 2 5.242000e-01 7.160488 2.204038 4.821887
319 107 1 -1.048400e+00 156.878955 115.229670 5.359349
320 107 2 5.242000e-01 157.563146 115.957139 5.307657
321 107 2 5.242000e-01 157.338064 114.341771 5.388577
322 108 1 -1.048400e+00 174.644306 202.034369 1.661027
323 108 2 5.242000e-01 174.062716 202.838221 1.785828
324 108 2 5.242000e-01 174.087151 201.206516 1.726123
325 109 1 -1.048400e+00 82.444082 17.127010 5.387647
326 109 2 5.242000e-01 81.505246 16.831393 5.564278
327 109 2 5.242000e-01 82.478006 18.125818 5.352554
328 110 1 -1.048400e+00 40.976568 115.807977 1.382011
329 110 2 5.242000e-01 41.081930 116.729563 1.008409
330 110 2 5.242000e-01 40.101233 115.426133 1.085391
331 111 1 -1.048400e+00 164.074948 51.671359 2.803744
332 111 2 5.242000e-01 163.956121 50.772881 3.226376
333 111 2 5.242000e-01 164.976417 51.720840 2.373737
334 112 1 -1.048400e+00 80.210652 9.340411 4.402716
335 112 2 5.242000e-01 79.332805 9.817950 4.439357
336 112 2 5.242000e-01 80.417575 8.953853 5.301469
337 113 1 -1.048400e+00 23.835072 97.775471 2.712468
338 113 2 5.242000e-01 22.984179 98.051497 2.265489
339 113 2 5.242000e-01 24.405853 98.581453 2.869320
340 114 1 -1.048400e+00 82.322487 187.873037 5.415513
341 114 2 5.242000e-01 83.271167 187.562471 5.475142
342 114 2 5.242000e-01 82.283271 188.858370 5.581591
343 115 1 -1.048400e+00 93.313922 70.121243 2.729264
344 115 2 5.242000e-01 93.524806 70.551325 3.607078
345 115 2 5.242000e-01 93.684688 69.192619 2.715462
346 116 1 -1.048400e+00 11.569096 134.857882 5.010194
347 116 2 5.242000e-01 10.927843 134.090737 5.027054
348 116 2 5.242000e-01 11.063421 135.716829 5.090832
349 117 1 -1.048400e+00 103.233796 116.010835 1.930777
350 117 2 5.242000e-01 102.288470 116.189097 1.657679
351 117 2 5.242000e-01 103.701229 116.878583 2.099659
352 118 1 -1.048400e+00 194.394419 137.894679 2.009754
353 118 2 5.242000e-01 193.649276 137.910135 2.676480
354 118 2 5.242000e-01 194.606269 138.829555 1.724926
355 119 1 -1.048400e+00 104.688824 124.742765 5.051999
356 119 2 5.242000e-01 104.093077 123.941272 5.103907
357 119 2 5.242000e-01 104.136977 125.573528 5.124800
358 120 1 -1.048400e+00 150.256770 167.193360 5.504149
359 120 2 5.242000e-01 151.117399 167.699818 5.557238
360 120 2 5.242000e-01 149.490438 167.835542 5.522571
361 121 1 -1.048400e+00 55.055026 89.785238 4.477566
362 121 2 5.242000e-01 54.604184 89.608257 5.352449
363 121 2 5.242000e-01 54.421405 89.586530 3.729876
364 122 1 -1.048400e+00 156.316818 133.831994 4.084996
365 122 2 5.242000e-01 155.620596 133.596465 3.406909
366 122 2 5.242000e-01 157.059131 134.333198 3.640286
367 123 1 -1.048400e+00 6.452103 90.362537 4.294795
368 123 2 5.242000e-01 7.430172 90.155090 4.276157
369 123 2 5.242000e-01 6.322150 91.353451 4.329458
370 124 1 -1.048400e+00 113.679903 149.487000 3.077342
371 124 2 5.242000e-01 113.547096 148.672956 3.642757
372 124 2 5.242000e-01 113.656117 150.302239 3.655979
373 125 1 -1.048400e+00 134.040534 201.610228 2.825717
374 125 2 5.242000e-01 134.604092 201.365968 2.036579
375 125 2 5.242000e-01 133.075695 201.596788 2.563217
376 126 1 -1.048400e+00 109.939325 50.642016 5.071542
377 126 2 5.242000e-01 109.433678 51.231235 4.441350
378 126 2 5.242000e-01 110.523409 51.203989 5.657232
379 127 1 -1.048400e+00 194.633143 24.961626 2.056522
380 127 2 5.242000e-01 194.031731 24.634054 2.785219
381 127 2 5.242000e-01 194.081618 25.252968 1.274894
382 128 1 -1.048400e+00 105.239385 184.230523 1.285354
383 128 2 5.242000e-01 104.631421 185.021591 1.217596
384 128 2 5.242000e-01 104.702437 183.390169 1.211249
385 129 1 -1.048400e+00 132.465248 197.401008 3.828958
386 129 2 5.242000e-01 132.312003 198.130437 3.162287
387 129 2 5.242000e-01 131.606586 197.190969 4.296487
388 130 1 -1.048400e+00 178.051142 134.057716 1.773987
389 130 2 5.242000e-01 178.828746 133.435935 1.680601
390 130 2 5.242000e-01 178.377973 134.960540 2.053435
391 131 1 -1.048400e+00 157.945478 185.497815 5.984593
392 131 2 5.242000e-01 158.326876 184.600079 5.764123
393 131 2 5.242000e-01 158.627105 186.204898 5.796398
394 132 1 -1.048400e+00 163.380658 91.793802 4.511857
395 132 2 5.242000e-01 162.914795 92.637545 4.778447
396 132 2 5.242000e-01 162.758004 91.019431 4.624338
397 133 1 -1.048400e+00 33.610923 45.711755 4.500774
398 133 2 5.242000e-01 34.538006 45.384445 4.318059
399 133 2 5.242000e-01 32.950398 45.109385 4.052601
400 134 1 -1.048400e+00 172.057367 23.975113 1.503125
401 134 2 5.242000e-01 171.839605 24.192641 2.454577
402 134 2 5.242000e-01 171.211235 23.804871 0.998071
403 135 1 -1.048400e+00 165.210204 106.527973 5.995092
404 135 2 5.242000e-01 164.773186 107.427411 6.000356
405 135 2 5.242000e-01 166.199923 106.638809 5.904691
406 136 1 -1.048400e+00 20.203537 66.408135 5.444578
407 136 2 5.242000e-01 19.808385 67.317235 5.576457
408 136 2 5.242000e-01 21.169285 66.423695 5.703596
409 137 1 -1.048400e+00 98.335157 22.635938 5.872282
410 137 2 5.242000e-01 98.405312 21.671145 5.618801
411 137 2 5.242000e-01 97.377002 22.920319 5.839632
412 138 1 -1.048400e+00 149.855685 100.340849 4.409060
413 138 2 5.242000e-01 149.361804 99.471504 4.391162
414 138 2 5.242000e-01 149.200496 101.096105 4.426869
415 139 1 -1.048400e+00 178.084033 54.837813 5.492535
416 139 2 5.242000e-01 178.889101 55.146306 5.999189
417 139 2 5.242000e-01 178.093796 53.840031 5.426686
418 140 1 -1.048400e+00 0.713377 151.287798 1.975733
419 140 2 5.242000e-01 0.850929 151.474035 1.002904
420 140 2 5.242000e-01 0.522177 150.314803 2.105051
421 141 1 -1.048400e+00 53.941186 159.589564 1.547294
422 141 2 5.242000e-01 54.017928 160.531732 1.221057
423 141 2 5.242000e-01 54.242352 159.541020 2.499629
424 142 1 -1.048400e+00 94.720575 143.042012 6.000863
425 142 2 5.242000e-01 93.924480 143.601369 5.769878
426 142 2 5.242000e-01 94.933468 142.433460 5.236441
427 143 1 -1.048400e+00 145.288621 82.765213 5.560625
428 143 2 5.242000e-01 145.565258 81.817650 5.720615
429 143 2 5.242000e-01 145.308580 82.957125 4.579415
430 144 1 -1.048400e+00 104.099437 17.430146 1.005093
431 144 2 5.242000e-01 103.356926 17.827923 1.544028
432 144 2 5.242000e-01 104.069009 16.433446 1.080352
433 145 1 -1.048400e+00 120.237425 81.807744 3.816960
434 145 2 5.242000e-01 120.938950 82.510198 3.696872
435 145 2 5.242000e-01 119.859707 81.558041 2.925344
436 146 1 -1.048400e+00 45.114585 177.102186 2.779536
437 146 2 5.242000e-01 44.686910 178.000481 2.880336
438 146 2 5.242000e-01 45.074436 176.614181 3.651453
439 147 1 -1.048400e+00 21.659803 170.131272 5.983099
440 147 2 5.242000e-01 20.969604 170.854705 5.999556
441 147 2 5.242000e-01 21.639178 169.671050 5.095535
442 148 1 -1.048400e+00 31.671930 167.402970 2.075404
443 148 2 5.242000e-01 31.134230 166.788351 2.652572
444 148 2 5.242000e-01 32.074066 166.884689 1.320637
445 149 1 -1.048400e+00 89.921679 119.113773 1.582818
446 149 2 5.242000e-01 89.751604 119.918233 2.151957
447 149 2 5.242000e-01 90.819704 119.195178 1.150469
448 150 1 -1.048400e+00 23.888864 51.181567 2.742214
449 150 2 5.242000e-01 24.211616 52.107814 2.936887
450 150 2 5.242000e-01 24.620186 50.659002 2.303928
451 151 1 -1.048400e+00 183.975184 111.632678 1.937725
452 151 2 5.242000e-01 183.607847 111.646482 1.007739
453 151 2 5.242000e-01 184.374891 112.524050 2.151479
454 152 1 -1.048400e+00 95.615576 74.323109 1.859158
455 152 2 5.242000e-01 94.892794 74.920005 2.207442
456 152 2 5.242000e-01 95.281542 73.381236 1.823138
457 153 1 -1.048400e+00 105.551438 189.810530 4.160106
458 153 2 5.242000e-01 105.816628 188.846376 4.169198
459 153 2 5.242000e-01 106.372047 190.381788 4.143767
460 154 1 -1.048400e+00 94.720603 145.785015 2.607300
461 154 2 5.242000e-01 95.684626 145.879039 2.358668
462 154 2 5.242000e-01 94.462709 144.819154 2.582695
463 155 1 -1.048400e+00 69.489455 150.008217 2.018372
464 155 2 5.242000e-01 69.106348 149.226433 1.526392
465 155 2 5.242000e-01 70.346540 149.738382 2.457229
466 156 1 -1.048400e+00 72.683252 65.468871 1.437416
467 156 2 5.242000e-01 72.618120 66.366637 1.001786
468 156 2 5.242000e-01 72.312382 65.520630 2.364658
469 157 1 -1.048400e+00 53.027017 73.863718 5.361979
470 157 2 5.242000e-01 52.855229 73.262159 4.581841
471 157 2 5.242000e-01 52.178686 73.994784 5.874967
472 158 1 -1.048400e+00 45.665849 159.962159 5.129352
473 158 2 5.242000e-01 46.241845 160.741779 5.375164
474 158 2 5.242000e-01 45.912508 159.174418 5.693818
475 159 1 -1.048400e+00 145.503328 172.367839 4.805845
476 159 2 5.242000e-01 145.773324 171.470702 4.456203
477 159 2 5.242000e-01 144.507167 172.450638 4.777446
478 160 1 -1.048400e+00 150.886655 118.385006 4.768700
479 160 2 5.242000e-01 151.230110 118.039811 3.895270
480 160 2 5.242000e-01 151.528560 119.057600 5.136904
481 161 1 -1.048400e+00 100.504473 164.117667 1.207181
482 161 2 5.242000e-01 100.106308 163.280484 1.582135
483 161 2 5.242000e-01 99.798289 164.822746 1.142617
484 162 1 -1.048400e+00 113.365920 26.104819 3.448961
485 162 2 5.242000e-01 112.992729 25.177427 3.474926
486 162 2 5.242000e-01 114.357493 26.061787 3.326772
487 163 1 -1.048400e+00 85.475102 42.697546 1.378358
488 163 2 5.242000e-01 84.559256 42.840429 1.003108
489 163 2 5.242000e-01 86.019960 43.526570 1.252464
490 164 1 -1.048400e+00 73.821182 64.159194 5.116829
491 164 2 5.242000e-01 74.673529 63.638600 5.166709
492 164 2 5.242000e-01 73.147009 63.754871 5.734901
493 165 1 -1.048400e+00 134.968975 163.991621 0.999097
494 165 2 5.242000e-01 135.079916 163.144825 1.519318
495 165 2 5.242000e-01 135.391204 164.747733 1.499113
496 166 1 -1.048400e+00 125.239043 146.753477 3.269408
497 166 2 5.242000e-01 126.068101 147.291313 3.116454
498 166 2 5.242000e-01 124.435645 147.320265 3.086914
499 167 1 -1.048400e+00 132.046873 125.797443 4.314220
500 167 2 5.242000e-01 132.415609 125.784137 3.384780
501 167 2 5.242000e-01 132.762726 126.079899 4.952791
502 168 1 -1.048400e+00 122.347986 134.905147 5.600291
503 168 2 5.242000e-01 123.245186 135.063482 6.012556
504 168 2 5.242000e-01 121.770728 135.709838 5.739023
505 169 1 -1.048400e+00 185.973047 48.708758 5.161093
506 169 2 5.242000e-01 186.498005 48.810854 6.006076
507 169 2 5.242000e-01 186.589063 48.773883 4.376056
508 170 1 -1.048400e+00 14.479989 155.885445 1.885498
509 170 2 5.242000e-01 15.258085 155.329756 1.592619
510 170 2 5.242000e-01 13.632678 155.373701 1.743432
511 171 1 -1.048400e+00 164.053543 150.478227 5.996583
512 171 2 5.242000e-01 164.979166 150.835277 5.871130
513 171 2 5.242000e-01 163.399213 151.080190 5.538877
514 172 1 -1.048400e+00 135.168749 18.938841 2.869019
515 172 2 5.242000e-01 136.089454 18.966860 2.479764
516 172 2 5.242000e-01 134.605077 19.646490 2.442982
517 173 1 -1.048400e+00 36.843008 179.813309 3.041453
518 173 2 5.242000e-01 36.385677 180.651047 2.743051
519 173 2 5.242000e-01 36.159205 179.106027 3.220804
520 174 1 -1.048400e+00 181.763698 46.176003 6.002631
521 174 2 5.242000e-01 182.422136 46.789618 5.566815
522 174 2 5.242000e-01 181.064168 45.911846 5.338643
523 175 1 -1.048400e+00 142.052012 36.650495 3.147135
524 175 2 5.242000e-01 142.533864 37.001260 2.344151
525 175 2 5.242000e-01 142.672345 36.079796 3.685178
526 176 1 -1.048400e+00 172.610802 138.986527 1.964725
527 176 2 5.242000e-01 172.917256 138.077132 2.245950
528 176 2 5.242000e-01 171.628827 138.964098 1.777049
529 177 1 -1.048400e+00 17.423662 71.552700 1.275200
530 177 2 5.242000e-01 18.226379 70.968745 1.154195
531 177 2 5.242000e-01 17.670678 72.348456 1.828152
532 178 1 -1.048400e+00 71.990269 185.903243 1.149246
533 178 2 5.242000e-01 72.087223 184.919603 0.997415
534 178 2 5.242000e-01 71.019835 186.144153 1.164099
535 179 1 -1.048400e+00 178.375606 146.461006 3.873755
536 179 2 5.242000e-01 178.720656 147.252722 3.369645
537 179 2 5.242000e-01 177.392637 146.367629 3.715474
538 180 1 -1.048400e+00 147.288610 111.791554 5.997007
539 180 2 5.242000e-01 148.265107 111.713552 5.796087
540 180 2 5.242000e-01 146.953496 112.679670 5.682444
541 181 1 -1.048400e+00 137.866643 33.238082 4.509475
542 181 2 5.242000e-01 138.209309 32.322162 4.300501
543 181 2 5.242000e-01 138.297160 33.571711 5.348133
544 182 1 -1.048400e+00 110.178417 164.649928 4.272982
545 182 2 5.242000e-01 111.164244 164.507977 4.362405
546 182 2 5.242000e-01 109.956639 165.598935 4.497036
547 183 1 -1.048400e+00 150.717195 34.619199 5.284963
548 183 2 5.242000e-01 150.487791 33.785661 4.782380
549 183 2 5.242000e-01 149.888089 35.158618 5.431973
550 184 1 -1.048400e+00 79.834095 71.854358 5.819742
551 184 2 5.242000e-01 79.806421 72.324809 4.937750
552 184 2 5.242000e-01 79.041175 71.250389 5.900374
553 185 1 -1.048400e+00 73.749279 142.073350 3.776463